
    -----------------------------------------------------------------------
          Psi4: An Open-Source Ab Initio Electronic Structure Package
                               Psi4 1.2a1.dev194 

                         Git: Rev {master} 77af755 


    R. M. Parrish, L. A. Burns, D. G. A. Smith, A. C. Simmonett,
    A. E. DePrince III, E. G. Hohenstein, U. Bozkaya, A. Yu. Sokolov,
    R. Di Remigio, R. M. Richard, J. F. Gonthier, A. M. James,
    H. R. McAlexander, A. Kumar, M. Saitow, X. Wang, B. P. Pritchard,
    P. Verma, H. F. Schaefer III, K. Patkowski, R. A. King, E. F. Valeev,
    F. A. Evangelista, J. M. Turney, T. D. Crawford, and C. D. Sherrill,
    J. Chem. Theory Comput. in press (2017).
    (doi: 10.1021/acs.jctc.7b00174)

    -----------------------------------------------------------------------


    Psi4 started on: Monday, 03 July 2017 02:01PM

    Process ID:  10266
    PSIDATADIR: /usr/local/psi4/share/psi4
    Memory:     500.0 MiB
    Threads:    1
    
  ==> Input File <==

--------------------------------------------------------------------------
molecule h2o {
0 1
O  0.0000000000  0.0000000000 -0.1247219248
H  0.0000000000 -1.4343021349  0.9864370414
H  0.0000000000  1.4343021349  0.9864370414
units bohr
}

set basis sto-3g
set scf_type pk
set reference rhf

hessian('scf')

--------------------------------------------------------------------------
hessian() will perform analytic frequency computation.

*** tstart() called on knut
*** at Mon Jul  3 14:01:28 2017

   => Loading Basis Set <=

    Name: STO-3G
    Role: ORBITAL
    Keyword: BASIS
    atoms 1   entry O          line    81 file /usr/local/psi4/share/psi4/basis/sto-3g.gbs 
    atoms 2-3 entry H          line    19 file /usr/local/psi4/share/psi4/basis/sto-3g.gbs 


         ---------------------------------------------------------
                                   SCF
            by Justin Turney, Rob Parrish, Andy Simmonett
                             and Daniel Smith
                              RHF Reference
                        1 Threads,    500 MiB Core
         ---------------------------------------------------------

  ==> Geometry <==

    Molecular point group: c2v
    Full point group: C2v

    Geometry (in Bohr), charge = 0, multiplicity = 1:

       Center              X                  Y                   Z               Mass       
    ------------   -----------------  -----------------  -----------------  -----------------
           O         -0.000000000000     0.000000000000    -0.124355214888    15.994914619560
           H          0.000000000000    -1.434302134900     0.986803751312     1.007825032070
           H         -0.000000000000     1.434302134900     0.986803751312     1.007825032070

  Running in c2v symmetry.

  Rotational constants: A =     27.23781  B =     14.51770  C =      9.47014 [cm^-1]
  Rotational constants: A = 816568.85319  B = 435229.68359  C = 283907.50841 [MHz]
  Nuclear repulsion =    9.167145312809030

  Charge       = 0
  Multiplicity = 1
  Electrons    = 10
  Nalpha       = 5
  Nbeta        = 5

  ==> Algorithm <==

  SCF Algorithm Type is PK.
  DIIS enabled.
  MOM disabled.
  Fractional occupation disabled.
  Guess Type is SAD.
  Energy threshold   = 1.00e-08
  Density threshold  = 1.00e-08
  Integral threshold = 0.00e+00

  ==> Primary Basis <==

  Basis Set: STO-3G
    Blend: STO-3G
    Number of shells: 5
    Number of basis function: 7
    Number of Cartesian functions: 7
    Spherical Harmonics?: true
    Max angular momentum: 1

  ==> Pre-Iterations <==

   -------------------------------------------------------
    Irrep   Nso     Nmo     Nalpha   Nbeta   Ndocc  Nsocc
   -------------------------------------------------------
     A1         4       4       0       0       0       0
     A2         0       0       0       0       0       0
     B1         1       1       0       0       0       0
     B2         2       2       0       0       0       0
   -------------------------------------------------------
    Total       7       7       5       5       5       0
   -------------------------------------------------------

  ==> Integral Setup <==

  Using in-core PK algorithm.
   Calculation information:
      Number of atoms:                   3
      Number of AO shells:               5
      Number of primitives:             15
      Number of atomic orbitals:         7
      Number of basis functions:         7

      Integral cutoff                 1.00e-12
      Number of threads:                 1

  Performing in-core PK
  Using 812 doubles for integral storage.
  We computed 120 shell quartets total.
  Whereas there are 120 unique shell quartets.
  ==> DiskJK: Disk-Based J/K Matrices <==

    J tasked:                  Yes
    K tasked:                  Yes
    wK tasked:                  No
    Memory (MB):               375
    Schwarz Cutoff:          1E-12

    OpenMP threads:              1
  Minimum eigenvalue in the overlap matrix is 3.4412692207E-01.
  Using Symmetric Orthogonalization.

  SCF Guess: Superposition of Atomic Densities via on-the-fly atomic UHF.

  ==> Iterations <==

                        Total Energy        Delta E     RMS |[F,P]|

   @RHF iter   0:   -74.79484940997882   -7.47948e+01   3.25985e-01 
   @RHF iter   1:   -74.91844896798294   -1.23600e-01   5.00108e-02 
   @RHF iter   2:   -74.96152817508428   -4.30792e-02   8.51208e-03 DIIS
   @RHF iter   3:   -74.96299734237763   -1.46917e-03   3.29244e-03 DIIS
   @RHF iter   4:   -74.96334167046246   -3.44328e-04   2.98813e-04 DIIS
   @RHF iter   5:   -74.96334378211495   -2.11165e-06   2.69864e-05 DIIS
   @RHF iter   6:   -74.96334379508691   -1.29720e-08   1.50819e-07 DIIS
   @RHF iter   7:   -74.96334379508764   -7.24754e-13   1.44709e-08 DIIS
   @RHF iter   8:   -74.96334379508764    0.00000e+00   5.52842e-11 DIIS

  ==> Post-Iterations <==

    Orbital Energies (a.u.)
    -----------------------

    Doubly Occupied:                                                      

       1A1   -20.242155     2A1    -1.266975     1B2    -0.616312  
       3A1    -0.452762     1B1    -0.391090  

    Virtual:                                                              

       4A1     0.602857     2B2     0.738790  

    Final Occupation by Irrep:
             A1    A2    B1    B2 
    DOCC [     3,    0,    1,    1 ]

  Energy converged.

  @RHF Final Energy:   -74.96334379508764

   => Energetics <=

    Nuclear Repulsion Energy =              9.1671453128090299
    One-Electron Energy =                -122.3223914069000529
    Two-Electron Energy =                  38.1919022990033952
    PCM Polarization Energy =               0.0000000000000000
    Total Energy =                        -74.9633437950876385

    Alert: EFP and PCM quantities not currently incorporated into SCF psivars.

Properties will be evaluated at   0.000000,   0.000000,   0.000000 Bohr

Properties computed using the SCF density matrix

  Nuclear Dipole Moment: (a.u.)
     X:     0.0000      Y:     0.0000      Z:     0.9788

  Electronic Dipole Moment: (a.u.)
     X:     0.0000      Y:     0.0000      Z:    -0.3012

  Dipole Moment: (a.u.)
     X:     0.0000      Y:     0.0000      Z:     0.6776     Total:     0.6776

  Dipole Moment: (Debye)
     X:     0.0000      Y:     0.0000      Z:     1.7223     Total:     1.7223


*** tstop() called on knut at Mon Jul  3 14:01:28 2017
Module time:
	user time   =       0.25 seconds =       0.00 minutes
	system time =       0.17 seconds =       0.00 minutes
	total time  =          0 seconds =       0.00 minutes
Total time:
	user time   =       0.25 seconds =       0.00 minutes
	system time =       0.17 seconds =       0.00 minutes
	total time  =          0 seconds =       0.00 minutes

*** tstart() called on knut
*** at Mon Jul  3 14:01:28 2017


         ------------------------------------------------------------
                                   SCF HESS                          
                          Rob Parrish, Justin Turney,                
                       Andy Simmonett, and Alex Sokolov              
         ------------------------------------------------------------

  ==> Geometry <==

    Molecular point group: c2v
    Full point group: C2v

    Geometry (in Bohr), charge = 0, multiplicity = 1:

       Center              X                  Y                   Z               Mass       
    ------------   -----------------  -----------------  -----------------  -----------------
           O         -0.000000000000     0.000000000000    -0.124355214888    15.994914619560
           H          0.000000000000    -1.434302134900     0.986803751312     1.007825032070
           H         -0.000000000000     1.434302134900     0.986803751312     1.007825032070

  Nuclear repulsion =    9.167145312809030

  ==> Basis Set <==

  Basis Set: STO-3G
    Blend: STO-3G
    Number of shells: 5
    Number of basis function: 7
    Number of Cartesian functions: 7
    Spherical Harmonics?: true
    Max angular momentum: 1

  ==> DirectJKGrad: Integral-Direct SCF Gradients <==

    Gradient:                    2
    J tasked:                  Yes
    K tasked:                  Yes
    wK tasked:                  No
    Integrals threads:           1
    Schwarz Cutoff:          0E+00

  Using in-core PK algorithm.
   Calculation information:
      Number of atoms:                   3
      Number of AO shells:               5
      Number of primitives:             15
      Number of atomic orbitals:         7
      Number of basis functions:         7

      Integral cutoff                 1.00e-12
      Number of threads:                 1

  Performing in-core PK
  Using 812 doubles for integral storage.
  We computed 120 shell quartets total.
  Whereas there are 120 unique shell quartets.
  ==> DiskJK: Disk-Based J/K Matrices <==

    J tasked:                  Yes
    K tasked:                  Yes
    wK tasked:                  No
    Memory (MB):               450
    Schwarz Cutoff:          1E-12

    OpenMP threads:              1

         ------------------------------------------------------------
                                     CPHF                           
                                  Rob Parrish                       
         ------------------------------------------------------------

  ==> Geometry <==

    Molecular point group: c2v
    Full point group: C2v

    Geometry (in Bohr), charge = 0, multiplicity = 1:

       Center              X                  Y                   Z               Mass       
    ------------   -----------------  -----------------  -----------------  -----------------
           O         -0.000000000000     0.000000000000    -0.124355214888    15.994914619560
           H          0.000000000000    -1.434302134900     0.986803751312     1.007825032070
           H         -0.000000000000     1.434302134900     0.986803751312     1.007825032070

  Nuclear repulsion =    9.167145312809030
  Reference energy  =  -74.963343795087638

  ==> Basis Set <==

  Basis Set: STO-3G
    Blend: STO-3G
    Number of shells: 5
    Number of basis function: 7
    Number of Cartesian functions: 7
    Spherical Harmonics?: true
    Max angular momentum: 1

  ==> CGRSolver (by Rob Parrish) <==

   Number of roots    =         9
   Preconditioning    =    JACOBI
   Convergence cutoff =     1E-06
   Maximum iterations =       100

  ==> CPHFRHamiltonian (by Rob Parrish) <== 

  ==> DiskJK: Disk-Based J/K Matrices <==

    J tasked:                  Yes
    K tasked:                  Yes
    wK tasked:                  No
    Memory (MB):               450
    Schwarz Cutoff:          1E-12

    OpenMP threads:              1
  ==> CPHF Iterations <==

  => Iterations <=

             Iter  Converged  Remaining    Residual
  CGR           1          1          8   5.549E-02
  CGR           2          3          6   8.783E-03
  CGR           3          3          6   1.027E-03
  CGR           4          5          4   2.207E-04
  CGR           5          5          4   3.174E-05
  CGR           6          9          0   1.538E-07

    CGRSolver converged.

  ## Total Hessian (Symmetry 0) ##
  Irrep: 1 Size: 9 x 9

                 1                   2                   3                   4                   5

    1    -0.05193740709657    -0.00000000000000     0.00000000000000     0.02596870354958     0.00000000000000
    2    -0.00000000000000     0.97756294701919     0.00000000000000     0.00000000000000    -0.48878147350828
    3     0.00000000000000     0.00000000000000     0.65750370314893    -0.00000000000000     0.26900070116260
    4     0.02596870354958     0.00000000000000    -0.00000000000000    -0.02030345826200    -0.00000000000000
    5     0.00000000000000    -0.48878147350828     0.26900070116260    -0.00000000000000     0.51859959806757
    6    -0.00000000000000     0.39877879330578    -0.32875185157315     0.00000000000000    -0.33388974723419
    7     0.02596870354958     0.00000000000000     0.00000000000000    -0.00566524528757     0.00000000000000
    8     0.00000000000000    -0.48878147350828    -0.26900070116260     0.00000000000000    -0.02981812455929
    9     0.00000000000000    -0.39877879330578    -0.32875185157315    -0.00000000000000     0.06488904607159

                 6                   7                   8                   9

    1    -0.00000000000000     0.02596870354958     0.00000000000000     0.00000000000000
    2     0.39877879330578     0.00000000000000    -0.48878147350828    -0.39877879330578
    3    -0.32875185157315     0.00000000000000    -0.26900070116260    -0.32875185157315
    4     0.00000000000000    -0.00566524528757     0.00000000000000    -0.00000000000000
    5    -0.33388974723419     0.00000000000000    -0.02981812455929     0.06488904607159
    6     0.31152449418087     0.00000000000000    -0.06488904607159     0.01722735739228
    7     0.00000000000000    -0.02030345826200    -0.00000000000000    -0.00000000000000
    8    -0.06488904607159    -0.00000000000000     0.51859959806757     0.33388974723419
    9     0.01722735739228    -0.00000000000000     0.33388974723419     0.31152449418087




*** tstop() called on knut at Mon Jul  3 14:01:28 2017
Module time:
	user time   =       0.19 seconds =       0.00 minutes
	system time =       0.20 seconds =       0.00 minutes
	total time  =          0 seconds =       0.00 minutes
Total time:
	user time   =       0.44 seconds =       0.01 minutes
	system time =       0.38 seconds =       0.01 minutes
	total time  =          0 seconds =       0.00 minutes

*** Psi4 exiting successfully. Buy a developer a beer!
