
 Primary working directories    : /tmp
 Secondary working directories  : /tmp
 Wavefunction directory         : /home/vulcan/avcopan/wfu/
 Main file repository           : /tmp/

 ARCHNAME  : Linux/x86_64
 FC        : /opt/intel/compilers_and_libraries_2016.0.109/linux/bin/intel64/ifort
 FCVERSION : 16.0.0
 BLASLIB   : -L/opt/intel/compilers_and_libraries_2016.0.109/linux/mkl/lib/intel64 -lmkl_intel_ilp64 -lmkl_sequential -lmkl_core
 id        : ccgc

 Nodes               nprocs
 vlogin2.ccqc.uga.edu    1
 ga_uses_ma=false, calling ma_init with nominal heap.
 GA-space will be limited to   8.0 MW (determined by -G option)

 Using default tuning parameters: mindgm=1; mindgv=20; mindgc=4; mindgr=1; noblas=0; mincuda=1000; minvec=7
 default implementation of scratch files=df  

 ***,formaldehyde freqency calculation
 memory,8,m
 
 basis=sto-3g
 gthresh,energy=1.d-12
 
 geometry={
 O,,  0.0000000000,  0.0000000000, -0.1247219248
 H,,  0.0000000000, -1.4343021349,  0.9864370414
 H,,  0.0000000000,  1.4343021349,  0.9864370414
 }
 
 hf
 
 {frequencies,analytic
 print,hessian}

 Variables initialized (661), CPU time= 0.00 sec
 Commands  initialized (458), CPU time= 0.00 sec, 486 directives.
 Default parameters read. Elapsed time= 0.14 sec

 Checking input...
 Passed
1


                                         ***  PROGRAM SYSTEM MOLPRO  ***
                         Copyright, University College Cardiff Consultants Limited, 2008

                                    Version 2010.1 linked May 14 2016 18:34:31


 **********************************************************************************************************************************
 LABEL *   formaldehyde freqency calculation                                             
 Linux-3.10.0-514.10.2.el7.x86_64/vlogin2.ccqc.uga.edu(x86_64) 64 bit mpp version        DATE: 17-Aug-17          TIME: 13:20:23  
 **********************************************************************************************************************************

 SHA1:             57c563b22a5db544025966082d15ad0dfcb523e4
 **********************************************************************************************************************************

 Variable memory set to    8000000 words,  buffer space   230000 words

 SETTING BASIS          =    STO-3G

 THRESHOLDS:

 ZERO    =  1.00D-12  ONEINT  =  1.00D-12  TWOINT  =  1.00D-11  PREFAC  =  1.00D-14  LOCALI  =  1.00D-09  EORDER  =  1.00D-04
 ENERGY  =  1.00D-12  ETEST   =  0.00D+00  EDENS   =  0.00D+00  THRDEDEF=  1.00D-06  GRADIENT=  1.00D-02  STEP    =  1.00D-03
 ORBITAL =  1.00D-05  CIVEC   =  1.00D-05  COEFF   =  1.00D-04  PRINTCI =  5.00D-02  PUNCHCI =  9.90D+01  OPTGRAD =  3.00D-04
 OPTENERG=  1.00D-06  OPTSTEP =  3.00D-04  THRGRAD =  1.00D-10  COMPRESS=  1.00D-11  VARMIN  =  1.00D-07  VARMAX  =  1.00D-03
 THRDOUB =  0.00D+00  THRDIV  =  1.00D-05  THRRED  =  1.00D-07  THRPSP  =  1.00D+00  THRDC   =  1.00D-10  THRCS   =  1.00D-10
 THRNRM  =  1.00D-08  THREQ   =  0.00D+00  THRDE   =  1.00D+00  THRREF  =  1.00D-05  SPARFAC =  1.00D+00  THRDLP  =  1.00D-07
 THRDIA  =  1.00D-10  THRDLS  =  1.00D-07  THRGPS  =  0.00D+00  THRKEX  =  0.00D+00  THRDIS  =  2.00D-01  THRVAR  =  1.00D-10
 THRLOC  =  1.00D-06  THRGAP  =  1.00D-06  THRLOCT = -1.00D+00  THRGAPT = -1.00D+00  THRORB  =  1.00D-06  THRMLTP =  0.00D+00
 THRCPQCI=  1.00D-10  KEXTA   =  0.00D+00  THRCOARS=  0.00D+00  SYMTOL  =  1.00D-06  GRADTOL =  1.00D-06  THROVL  =  1.00D-08
 THRORTH =  1.00D-08  GRID    =  1.00D-06  GRIDMAX =  1.00D-03  DTMAX   =  0.00D+00



 Recomputing integrals since basis changed


 Using spherical harmonics

 Library entry O      S STO-3G               selected for orbital group  1
 Library entry O      P STO-3G               selected for orbital group  1
 Library entry H      S STO-3G               selected for orbital group  2

1PROGRAM * SEWARD (Integral evaluation for generally contracted gaussian basis sets)     Author: Roland Lindh, 1990

 Geometry written to block  1 of record 700


 Point group  C2v 



 ATOMIC COORDINATES

 NR  ATOM    CHARGE       X              Y              Z

   1  O       8.00    0.000000000    0.000000000   -0.124721925
   2  H       1.00    0.000000000   -1.434302135    0.986437041
   3  H       1.00    0.000000000    1.434302135    0.986437041

 Bond lengths in Bohr (Angstrom)

 1-2  1.814358526  1-3  1.814358526
     ( 0.960117181)     ( 0.960117181)

 Bond angles

  2-1-3  104.46985729

 NUCLEAR CHARGE:                   10
 NUMBER OF PRIMITIVE AOS:          21
 NUMBER OF SYMMETRY AOS:           21
 NUMBER OF CONTRACTIONS:            7   (   4A1  +   1B1  +   2B2  +   0A2  )
 NUMBER OF CORE ORBITALS:           1   (   1A1  +   0B1  +   0B2  +   0A2  )
 NUMBER OF VALENCE ORBITALS:        6   (   3A1  +   1B1  +   2B2  +   0A2  )


 NUCLEAR REPULSION ENERGY    9.16714531


 Eigenvalues of metric

         1 0.344E+00 0.886E+00 0.109E+01 0.193E+01
         2 0.100E+01
         3 0.419E+00 0.133E+01


 Contracted 2-electron integrals neglected if value below      1.0D-14
 AO integral compression algorithm  1   Integral accuracy      1.0D-14

     0.262 MB (compressed) written to integral file (100.0%)

     Node minimum: 0.262 MB, node maximum: 0.262 MB


 NUMBER OF SORTED TWO-ELECTRON INTEGRALS:        191.     BUFFER LENGTH:  32768
 NUMBER OF SEGMENTS:   1  SEGMENT LENGTH:        191      RECORD LENGTH: 524288

 Memory used in sort:       0.56 MW

 SORT1 READ         219. AND WROTE         171. INTEGRALS IN      1 RECORDS. CPU TIME:     0.00 SEC, REAL TIME:     0.00 SEC
 SORT2 READ         171. AND WROTE         191. INTEGRALS IN      1 RECORDS. CPU TIME:     0.00 SEC, REAL TIME:     0.00 SEC

 FILE SIZES:   FILE 1:     2.5 MBYTE,  FILE 4:     4.2 MBYTE,   TOTAL:      6.8 MBYTE

 OPERATOR DM      FOR CENTER  0  COORDINATES:    0.000000    0.000000    0.000000


 **********************************************************************************************************************************
 DATASETS  * FILE   NREC   LENGTH (MB)   RECORD NAMES
              1      19        2.55       500      610      700      900      950      970     1000      129      960     1100   
                                          VAR    BASINP    GEOM    SYMINP    ZMAT    AOBASIS   BASIS     P2S    ABASIS      S 
                                         1400     1410     1200     1210     1080     1600     1650     1300     1700   
                                           T        V       H0       H01     AOSYM     SMH    MOLCAS    ERIS     OPER   

 PROGRAMS   *        TOTAL       INT
 CPU TIMES  *         0.06      0.02
 REAL TIME  *         0.45 SEC
 DISK USED  *         7.50 MB      
 GA USED    *         0.00 MB       (max)       0.00 MB       (current)
 **********************************************************************************************************************************

1PROGRAM * RHF-SCF (CLOSED SHELL)       Authors: W. Meyer, H.-J. Werner


 NUMBER OF ELECTRONS:       5+    5-
 CONVERGENCE THRESHOLDS:    1.00E-06 (Density)    1.00E-13 (Energy)
 MAX. NUMBER OF ITERATIONS:       60
 INTERPOLATION TYPE:            DIIS
 INTERPOLATION STEPS:              2 (START)      1 (STEP)
 LEVEL SHIFTS:                  0.00 (CLOSED)  0.00 (OPEN) 



 Orbital guess generated from atomic densities. Full valence occupancy:    4   1   2   0

 Molecular orbital dump at record        2100.2

 Initial alpha occupancy:   3   1   1
 Initial beta  occupancy:   3   1   1
 Wave function symmetry:    1

 ITERATION    DDIFF          GRAD             ENERGY        2-EL.EN.            DIPOLE MOMENTS         DIIS
    1      0.000D+00      0.000D+00       -74.90389083     79.024484    0.00000    0.00000    1.14890    0
    2      0.000D+00      0.107D+00       -74.96269950     76.209901    0.00000    0.00000    0.66814    1
    3      0.155D+00      0.125D-01       -74.96330853     76.387830    0.00000    0.00000    0.68383    2
    4      0.116D-01      0.251D-02       -74.96334356     76.383803    0.00000    0.00000    0.67777    3
    5      0.450D-02      0.151D-03       -74.96334379     76.384084    0.00000    0.00000    0.67767    4
    6      0.433D-03      0.173D-04       -74.96334380     76.383804    0.00000    0.00000    0.67760    4
    7      0.523D-04      0.373D-06       -74.96334380     76.383805    0.00000    0.00000    0.67760    4
    8      0.848D-06      0.119D-07       -74.96334380     76.383805    0.00000    0.00000    0.67760    4
    9      0.179D-07      0.872D-09       -74.96334380     76.383805    0.00000    0.00000    0.67760    0

 Final occupancy:   3   1   1

 !RHF STATE 1.1 Energy                -74.963343795091
 Nuclear energy                         9.16714531
 One-electron energy                 -122.32239141
 Two-electron energy                   38.19190230
 Virial quotient                       -1.00511218
 !RHF STATE 1.1 Dipole moment           0.00000000     0.00000000     0.67760451
 Dipole moment /Debye                   0.00000000     0.00000000     1.72218608

 Orbital energies:

         1.1          2.1          3.1          4.1
    -20.242155    -1.266975    -0.452762     0.602857

         1.2
     -0.391090

         1.3          2.3
     -0.616312     0.738790


 **********************************************************************************************************************************
 DATASETS  * FILE   NREC   LENGTH (MB)   RECORD NAMES
              1      19        2.55       500      610      700      900      950      970     1000      129      960     1100   
                                          VAR    BASINP    GEOM    SYMINP    ZMAT    AOBASIS   BASIS     P2S    ABASIS      S 
                                         1400     1410     1200     1210     1080     1600     1650     1300     1700   
                                           T        V       H0       H01     AOSYM     SMH    MOLCAS    ERIS     OPER   

              2       3        0.26       700     1000     2100   
                                         GEOM     BASIS     RHF  

 PROGRAMS   *        TOTAL        HF       INT
 CPU TIMES  *         0.07      0.01      0.02
 REAL TIME  *         0.61 SEC
 DISK USED  *         7.50 MB      
 GA USED    *         0.00 MB       (max)       0.00 MB       (current)
 **********************************************************************************************************************************


 PROGRAM * HESSIAN

 *** Long output written to logfile /home/vulcan/avcopan/tmp/molpro_hessian/hessian.log ***


 PROGRAM * MCKINLEY (Hessian of the energy)     Author: A. Bernhardsson, R. Lindh

 Orbitals from record         2100.2

 Number of closed-shell orbitals:  5 (  3  1  1 )
 Number of occupied orbitals:      5 (  3  1  1 )

 Number of electrons= 10     Singlet     Space symmetry=1      Wavefunction type: CLOSED          


 McKinley needed      0.03 seconds of CPU time

 Entering CPHF calculation

 CPHF needed  36 iterations for  9 perturbations.  Total CPU time:    0.00 sec


 HF-SCF hessian saved to record  5300.2

 FREQUENCIES * CALCULATION OF HARMONIC VIBRATIONAL SPECTRA FOR HF-SCF


 Permanent Dipole Moment [debye]
   1-  3    0.000000    0.000000    0.000000

 Dipole Moment Norm    0.0000000 [debye]

 Dipole Moment Derivatives [debye/ang]
                   1             2             3             4             5             6             7             8
         1     0.0000000     0.0000000     0.0000000     0.0000000     0.0000000     0.0000000     0.0000000     0.0000000
         2     0.0000000     0.0000000     0.0000000     0.0000000     0.0000000     0.0000000     0.0000000     0.0000000
         3     0.0000000     0.0000000     0.0000000     0.0000000     0.0000000     0.0000000     0.0000000     0.0000000
                   9
         1     0.0000000
         2     0.0000000
         3     0.0000000

 Projecting out rotations and translations

 Force Constants (Second Derivatives of the Energy) in [a.u.]
                             OX1         OY1         OZ1         HX2         HY2     
           OX1          -0.0000000
           OY1           0.0000000   1.0015035
           OZ1           0.0000000  -0.0000000   0.6575037
           HX2           0.0000000   0.0000000   0.0000000  -0.0000000
           HY2           0.0000000  -0.5007517   0.2690007   0.0000000   0.5245847
           HZ2           0.0000000   0.3879342  -0.3287519   0.0000000  -0.3284674
           HX3           0.0000000   0.0000000   0.0000000  -0.0000000   0.0000000
           HY3           0.0000000  -0.5007517  -0.2690007   0.0000000  -0.0238330
           HZ3           0.0000000  -0.3879342  -0.3287519   0.0000000   0.0594667
                             HZ2         HX3         HY3         HZ3     
           HZ2           0.3146429
           HX3           0.0000000  -0.0000000
           HY3          -0.0594667   0.0000000   0.5245847
           HZ3           0.0141089   0.0000000   0.3284674   0.3146429


 Atomic Masses
   1-  3   15.999400    1.007940    1.007940

 Mass weighted Second Derivative Matrix
                             OX1         OY1         OZ1         HX2         HY2     
           OX1          -0.0000000
           OY1           0.0000000   0.0625963
           OZ1           0.0000000  -0.0000000   0.0410955
           HX2           0.0000000   0.0000000   0.0000000  -0.0000000
           HY2           0.0000000  -0.1246962   0.0669860   0.0000000   0.5204523
           HZ2           0.0000000   0.0966026  -0.0818651   0.0000000  -0.3258799
           HX3           0.0000000   0.0000000   0.0000000  -0.0000000   0.0000000
           HY3           0.0000000  -0.1246962  -0.0669860   0.0000000  -0.0236453
           HZ3           0.0000000  -0.0966026  -0.0818651   0.0000000   0.0589983
                             HZ2         HX3         HY3         HZ3     
           HZ2           0.3121643
           HX3           0.0000000  -0.0000000
           HY3          -0.0589983   0.0000000   0.5204523
           HZ3           0.0139978   0.0000000   0.3258799   0.3121643


 Mass Weighted 2nd Derivative Matrix Eigenvalues
   1-  9   -0.000000   -0.000000   -0.000000    0.000000    0.000000    0.000000    0.158999    0.752356    0.857570

 Mass Weighted 2nd Derivative Matrix Eigenvectors
                   1             2             3             4             5             6             7             8
         1     0.0000000     0.0000000     0.7926241     0.6097107     0.0000000     0.0000000     0.0000000     0.0000000
         2     0.0351359     0.8637106     0.0000000     0.0000000    -0.1986335    -0.3745952     0.0000000     0.0000000
         3     0.9386620    -0.0202120     0.0000000     0.0000000     0.0812656    -0.0016515    -0.2694882     0.1981779
         4    -0.0242384     0.3100985    -0.4311306     0.5604698     0.3676158     0.5177934    -0.0000000    -0.0000000
         5    -0.0262892     0.1139035     0.0000000     0.0000000     0.3258716    -0.3008035     0.4189174     0.5696562
         6     0.1902815    -0.1378771     0.0000000     0.0000000     0.5053927    -0.2673319     0.5368392    -0.3947842
         7     0.0242384    -0.3100985    -0.4311306     0.5604698    -0.3676158    -0.5177934     0.0000000     0.0000000
         8    -0.0262892     0.1139035     0.0000000     0.0000000     0.3258716    -0.3008035    -0.4189174    -0.5696562
         9     0.2809179     0.1277309     0.0000000     0.0000000    -0.4645982     0.2665029     0.5368392    -0.3947842
                   9
         1     0.0000000
         2    -0.2701715
         3     0.0000000
         4     0.0000000
         5     0.5382005
         6    -0.4169459
         7     0.0000000
         8     0.5382005
         9     0.4169459

   Low Vibration      Wavenumber
        Nr             [1/cm] 
        1                0.00
        2                0.00
        3                0.00
        4                0.00
        5                0.00
        6                0.00

     Vibration        Wavenumber
        Nr             [1/cm] 
        1             2049.74
        2             4458.75
        3             4760.32

 FREQUENCIES * CALCULATION OF NORMAL MODES FOR HF-SCF


 Atomic Coordinates

  Nr  Atom  Charge       X              Y              Z

   1   O     8.00    0.000000000    0.000000000   -0.124721925
   2   H     1.00    0.000000000   -1.434302135    0.986437041
   3   H     1.00    0.000000000    1.434302135    0.986437041

 Frequencies dumped to record   5400.2

 Normal Modes

                              1 A1        2 A1        3 B2 
 Wavenumbers [cm-1]         2049.74     4458.75     4760.32
 Intensities [km/mol]          0.00        0.00        0.00
 Intensities [relative]        0.00        0.00        0.00
           OX1              0.00000     0.00000     0.00000
           OY1              0.00000     0.00000    -0.06754
           OZ1             -0.06737     0.04955     0.00000
           HX2             -0.00000    -0.00000     0.00000
           HY2              0.41726     0.56741     0.53608
           HZ2              0.53472    -0.39323    -0.41530
           HX3              0.00000     0.00000     0.00000
           HY3             -0.41726    -0.56741     0.53608
           HZ3              0.53472    -0.39323     0.41530


 Normal Modes of low/zero frequencies

                                  1           2           3           4           5
 Wavenumbers [cm-1]            0.00        0.00        0.00        0.00        0.00
 Intensities [km/mol]          0.00        0.00        0.00        0.00        0.00
 Intensities [relative]        0.00        0.00        0.00        0.00        0.00
           OX1              0.00000     0.00000     0.19816     0.15243     0.00000
           OY1              0.00878     0.21593     0.00000     0.00000    -0.04966
           OZ1              0.23467    -0.00505     0.00000     0.00000     0.02032
           HX2             -0.02414     0.30887    -0.42943     0.55826     0.36616
           HY2             -0.02619     0.11345     0.00000     0.00000     0.32459
           HZ2              0.18953    -0.13733     0.00000     0.00000     0.50340
           HX3              0.02414    -0.30887    -0.42943     0.55826    -0.36616
           HY3             -0.02619     0.11345     0.00000     0.00000     0.32459
           HZ3              0.27981     0.12723     0.00000     0.00000    -0.46276

                                  6
 Wavenumbers [cm-1]            0.00
 Intensities [km/mol]          0.00
 Intensities [relative]        0.00
           OX1              0.00000
           OY1             -0.09365
           OZ1             -0.00041
           HX2              0.51575
           HY2             -0.29962
           HZ2             -0.26628
           HX3             -0.51575
           HY3             -0.29962
           HZ3              0.26545


 Zero point energy:  0.02567221 [H]     5634.40 [1/CM]       67.40 [KJ/MOL]
 Frequency information read from record  5400.2

        HF-SCF  
    -74.96334380
 **********************************************************************************************************************************
 Variable memory released
